# Probe 0 (-0.999 0 0)
# Time        0            
2.56441e-06   (19.0214 -1.9023e-05 6.18244)
5.31012e-06   (19.0214 -1.99738e-05 6.18244)
8.22081e-06   (19.0214 -2.02012e-05 6.18244)
1.11612e-05   (19.0214 -2.03244e-05 6.18244)
1.41424e-05   (19.0214 -2.03962e-05 6.18244)
1.71705e-05   (19.0214 -2.04424e-05 6.18244)
2.02405e-05   (19.0214 -2.04752e-05 6.18244)
2.33443e-05   (19.0214 -2.05004e-05 6.18244)
2.64772e-05   (19.0214 -2.05202e-05 6.18244)
2.96333e-05   (19.0214 -2.05363e-05 6.18244)
3.28051e-05   (19.0214 -2.05494e-05 6.18244)
3.59874e-05   (19.0214 -2.05602e-05 6.18243)
3.91782e-05   (19.0214 -2.05693e-05 6.18243)
4.23777e-05   (19.0214 -2.0577e-05 6.18243)
4.55863e-05   (19.0214 -2.05835e-05 6.18243)
4.8804e-05    (19.0214 -2.0589e-05 6.18243)
5.20298e-05   (19.0214 -2.05937e-05 6.18243)
5.52625e-05   (19.0214 -2.05976e-05 6.18243)
5.85006e-05   (19.0214 -2.0601e-05 6.18243)
6.17424e-05   (19.0214 -2.0604e-05 6.18243)
6.49862e-05   (19.0214 -2.06066e-05 6.18242)
6.82306e-05   (19.0214 -2.0609e-05 6.18242)
7.14753e-05   (19.0214 -2.06111e-05 6.18242)
7.47202e-05   (19.0214 -2.06132e-05 6.18242)
7.79658e-05   (19.0214 -2.06153e-05 6.18242)
8.12124e-05   (19.0214 -2.06175e-05 6.18242)
8.44599e-05   (19.0214 -2.06198e-05 6.18242)
8.77083e-05   (19.0214 -2.06222e-05 6.18241)
9.09574e-05   (19.0214 -2.06248e-05 6.18241)
9.42071e-05   (19.0214 -2.06276e-05 6.18241)
9.74574e-05   (19.0214 -2.06306e-05 6.18241)
0.000100709   (19.0214 -2.06339e-05 6.18241)
0.000103961   (19.0214 -2.06376e-05 6.18241)
0.000107214   (19.0214 -2.06415e-05 6.18241)
0.000110468   (19.0214 -2.06458e-05 6.1824)
0.000113723   (19.0214 -2.06503e-05 6.1824)
0.000116979   (19.0214 -2.06551e-05 6.1824)
0.000120236   (19.0214 -2.06603e-05 6.1824)
0.000123494   (19.0214 -2.06656e-05 6.1824)
0.000126752   (19.0214 -2.06712e-05 6.1824)
0.000130011   (19.0214 -2.06771e-05 6.1824)
0.00013327    (19.0214 -2.0683e-05 6.18239)
0.00013653    (19.0214 -2.0689e-05 6.18239)
0.00013979    (19.0214 -2.0695e-05 6.18239)
0.000143051   (19.0214 -2.0701e-05 6.18239)
0.000146312   (19.0214 -2.07071e-05 6.18239)
0.000149574   (19.0214 -2.07131e-05 6.18239)
0.000152837   (19.0214 -2.07192e-05 6.18239)
0.0001561     (19.0214 -2.07253e-05 6.18238)
0.000159363   (19.0214 -2.07315e-05 6.18238)
0.000162627   (19.0214 -2.07377e-05 6.18238)
0.000165892   (19.0214 -2.07439e-05 6.18238)
0.000169157   (19.0214 -2.07503e-05 6.18238)
0.000172423   (19.0214 -2.07566e-05 6.18238)
0.000175688   (19.0214 -2.07631e-05 6.18237)
0.000178954   (19.0214 -2.07695e-05 6.18237)
0.00018222    (19.0214 -2.0776e-05 6.18237)
0.000185486   (19.0214 -2.07825e-05 6.18237)
0.000188752   (19.0214 -2.07892e-05 6.18237)
0.000192019   (19.0214 -2.07958e-05 6.18237)
0.00019633    (19.0214 -2.08103e-05 6.18236)
0.000202538   (19.0214 -2.0843e-05 6.18236)
0.000211477   (19.0214 -2.09025e-05 6.18236)
0.00022368    (19.0214 -2.09943e-05 6.18235)
0.000239149   (19.0214 -2.11184e-05 6.18234)
0.000255491   (19.0214 -2.12506e-05 6.18233)
0.000271838   (19.0214 -2.13814e-05 6.18233)
0.000288189   (19.0214 -2.15105e-05 6.18232)
0.000304551   (19.0214 -2.16373e-05 6.18231)
0.000320932   (19.0214 -2.17618e-05 6.1823)
0.000337335   (19.0214 -2.18838e-05 6.18229)
0.000353754   (19.0214 -2.20027e-05 6.18229)
0.000370184   (19.0214 -2.21189e-05 6.18228)
0.000386617   (19.0214 -2.22327e-05 6.18227)
0.000403048   (19.0214 -2.23422e-05 6.18226)
0.000419481   (19.0214 -2.24514e-05 6.18225)
0.00043592    (19.0214 -2.25631e-05 6.18224)
0.00045237    (19.0214 -2.26784e-05 6.18223)
0.000468833   (19.0214 -2.2797e-05 6.18223)
0.000485309   (19.0214 -2.29188e-05 6.18222)
0.000501795   (19.0214 -2.3044e-05 6.18221)
0.000518289   (19.0214 -2.31725e-05 6.1822)
0.000534786   (19.0214 -2.33047e-05 6.18219)
0.000551285   (19.0214 -2.3439e-05 6.18218)
0.000567786   (19.0214 -2.35753e-05 6.18217)
0.000584291   (19.0214 -2.37143e-05 6.18216)
0.0006008     (19.0214 -2.38564e-05 6.18216)
0.000617314   (19.0214 -2.40017e-05 6.18215)
0.000633834   (19.0214 -2.41493e-05 6.18214)
0.00065036    (19.0214 -2.42987e-05 6.18213)
0.000666894   (19.0214 -2.44495e-05 6.18212)
0.000683434   (19.0214 -2.46016e-05 6.18211)
0.00069998    (19.0214 -2.47566e-05 6.1821)
0.000716534   (19.0214 -2.49135e-05 6.1821)
0.000733095   (19.0214 -2.50721e-05 6.18209)
0.000749664   (19.0214 -2.52325e-05 6.18208)
0.000766241   (19.0214 -2.53945e-05 6.18207)
0.000782826   (19.0214 -2.5557e-05 6.18206)
0.00079942    (19.0214 -2.57202e-05 6.18205)
0.000816024   (19.0214 -2.58844e-05 6.18204)
0.000832639   (19.0214 -2.60503e-05 6.18204)
0.000849266   (19.0214 -2.6218e-05 6.18203)
0.000865905   (19.0214 -2.6387e-05 6.18202)
0.000882559   (19.0214 -2.65562e-05 6.18201)
0.000899226   (19.0214 -2.67265e-05 6.182)
0.000915907   (19.0214 -2.68967e-05 6.18199)
0.000932601   (19.0214 -2.70674e-05 6.18198)
0.000949307   (19.0214 -2.7237e-05 6.18198)
0.000966025   (19.0214 -2.74069e-05 6.18197)
0.000982754   (19.0214 -2.75762e-05 6.18196)
0.000999494   (19.0214 -2.7745e-05 6.18195)
0.00101624    (19.0214 -2.79134e-05 6.18194)
0.00103301    (19.0214 -2.80806e-05 6.18193)
0.00104978    (19.0214 -2.82459e-05 6.18193)
0.00106657    (19.0214 -2.84084e-05 6.18192)
0.00108336    (19.0214 -2.85676e-05 6.18191)
0.00110017    (19.0214 -2.87266e-05 6.1819)
0.00111699    (19.0214 -2.88844e-05 6.18189)
0.00113382    (19.0214 -2.90418e-05 6.18188)
0.00115067    (19.0214 -2.91958e-05 6.18188)
0.00116752    (19.0214 -2.93484e-05 6.18187)
0.00118439    (19.0214 -2.95001e-05 6.18186)
0.00120127    (19.0214 -2.96516e-05 6.18185)
0.00121816    (19.0213 -2.98013e-05 6.18184)
0.00123506    (19.0213 -2.99512e-05 6.18183)
0.00125198    (19.0213 -3.01027e-05 6.18183)
0.00126891    (19.0213 -3.0253e-05 6.18182)
0.00128586    (19.0213 -3.04016e-05 6.18181)
0.00130281    (19.0213 -3.05505e-05 6.1818)
0.00131979    (19.0213 -3.06998e-05 6.18179)
0.00133677    (19.0213 -3.08493e-05 6.18179)
0.00135377    (19.0213 -3.09992e-05 6.18178)
0.00137079    (19.0213 -3.11472e-05 6.18177)
0.00138781    (19.0213 -3.12941e-05 6.18176)
0.00140486    (19.0213 -3.14409e-05 6.18176)
0.00142191    (19.0213 -3.15866e-05 6.18175)
0.00143899    (19.0213 -3.17339e-05 6.18174)
0.00145608    (19.0213 -3.18808e-05 6.18173)
0.00147318    (19.0213 -3.20252e-05 6.18173)
0.0014903     (19.0213 -3.21698e-05 6.18172)
0.00150744    (19.0213 -3.2313e-05 6.18171)
0.0015246     (19.0213 -3.24533e-05 6.1817)
0.00154177    (19.0213 -3.25924e-05 6.1817)
0.00155896    (19.0213 -3.27327e-05 6.18169)
0.00157617    (19.0213 -3.28711e-05 6.18168)
0.00159339    (19.0213 -3.30072e-05 6.18167)
0.00161063    (19.0213 -3.31421e-05 6.18167)
0.00162789    (19.0213 -3.32754e-05 6.18166)
0.00164516    (19.0213 -3.34072e-05 6.18165)
0.00166245    (19.0213 -3.35376e-05 6.18165)
0.00167975    (19.0213 -3.36653e-05 6.18164)
0.00169707    (19.0213 -3.37893e-05 6.18163)
0.0017144     (19.0213 -3.39098e-05 6.18163)
0.00173176    (19.0213 -3.4027e-05 6.18162)
0.00174913    (19.0213 -3.41412e-05 6.18161)
0.00176652    (19.0213 -3.42509e-05 6.1816)
0.00178392    (19.0213 -3.43566e-05 6.1816)
0.00180135    (19.0213 -3.44577e-05 6.18159)
0.00181879    (19.0213 -3.45554e-05 6.18158)
0.00183626    (19.0213 -3.46504e-05 6.18158)
0.00185374    (19.0213 -3.47399e-05 6.18157)
0.00187125    (19.0213 -3.48259e-05 6.18156)
0.00188877    (19.0213 -3.49087e-05 6.18156)
0.00190631    (19.0213 -3.49898e-05 6.18155)
0.00192388    (19.0213 -3.50661e-05 6.18155)
0.00194146    (19.0213 -3.51385e-05 6.18154)
0.00195907    (19.0213 -3.5208e-05 6.18153)
0.00197669    (19.0213 -3.52745e-05 6.18153)
0.00199433    (19.0213 -3.53377e-05 6.18152)
0.002012      (19.0213 -3.53977e-05 6.18151)
0.00202968    (19.0213 -3.54531e-05 6.18151)
0.00204738    (19.0213 -3.55032e-05 6.1815)
0.00206511    (19.0213 -3.55474e-05 6.1815)
0.00208285    (19.0213 -3.5588e-05 6.18149)
0.0021006     (19.0213 -3.56247e-05 6.18148)
0.00211838    (19.0213 -3.56562e-05 6.18148)
0.00213618    (19.0213 -3.56845e-05 6.18147)
0.00215399    (19.0213 -3.57097e-05 6.18147)
0.00217182    (19.0213 -3.57327e-05 6.18146)
0.00218966    (19.0213 -3.57521e-05 6.18145)
0.00220752    (19.0213 -3.57673e-05 6.18145)
0.0022254     (19.0213 -3.57773e-05 6.18144)
0.0022433     (19.0213 -3.57841e-05 6.18144)
0.00226121    (19.0213 -3.57865e-05 6.18143)
0.00227913    (19.0213 -3.57865e-05 6.18143)
0.00229706    (19.0213 -3.57842e-05 6.18142)
0.00231501    (19.0213 -3.5779e-05 6.18142)
0.00233297    (19.0213 -3.57704e-05 6.18141)
0.00235094    (19.0213 -3.57585e-05 6.1814)
0.00236891    (19.0213 -3.57438e-05 6.1814)
0.00238691    (19.0213 -3.57256e-05 6.18139)
0.00240491    (19.0213 -3.57042e-05 6.18139)
0.00242292    (19.0213 -3.5679e-05 6.18138)
0.00244095    (19.0213 -3.56502e-05 6.18138)
0.00245899    (19.0213 -3.56177e-05 6.18137)
0.00247704    (19.0213 -3.55827e-05 6.18137)
0.0024951     (19.0213 -3.55449e-05 6.18136)
0.00251318    (19.0213 -3.55055e-05 6.18136)
0.00253127    (19.0213 -3.54641e-05 6.18135)
0.00254938    (19.0213 -3.54195e-05 6.18135)
0.00256751    (19.0213 -3.5371e-05 6.18134)
0.00258565    (19.0213 -3.53204e-05 6.18134)
0.00260381    (19.0213 -3.52674e-05 6.18134)
0.00262199    (19.0213 -3.52129e-05 6.18133)
0.00264019    (19.0213 -3.51551e-05 6.18133)
0.00265841    (19.0213 -3.50952e-05 6.18132)
0.00267665    (19.0213 -3.50337e-05 6.18132)
0.00269491    (19.0213 -3.49712e-05 6.18131)
0.00271319    (19.0213 -3.49072e-05 6.18131)
0.00273149    (19.0213 -3.48397e-05 6.1813)
0.00274981    (19.0213 -3.47708e-05 6.1813)
0.00276815    (19.0213 -3.46991e-05 6.1813)
0.00278651    (19.0213 -3.46258e-05 6.18129)
0.00280488    (19.0213 -3.45517e-05 6.18129)
0.00282328    (19.0213 -3.44752e-05 6.18128)
0.00284168    (19.0213 -3.43962e-05 6.18128)
0.00286011    (19.0213 -3.43148e-05 6.18128)
0.00287854    (19.0213 -3.42321e-05 6.18127)
0.00289699    (19.0213 -3.4148e-05 6.18127)
0.00291544    (19.0213 -3.40639e-05 6.18127)
0.00293391    (19.0213 -3.39803e-05 6.18126)
0.00295238    (19.0213 -3.38963e-05 6.18126)
0.00297086    (19.0213 -3.38116e-05 6.18126)
0.00298935    (19.0213 -3.37258e-05 6.18125)
0.00300784    (19.0213 -3.36404e-05 6.18125)
0.00302633    (19.0213 -3.35551e-05 6.18125)
0.00304483    (19.0213 -3.34697e-05 6.18124)
0.00306334    (19.0213 -3.3385e-05 6.18124)
0.00308185    (19.0213 -3.33006e-05 6.18124)
0.00310036    (19.0213 -3.32157e-05 6.18124)
0.00311888    (19.0213 -3.31315e-05 6.18123)
0.00313741    (19.0213 -3.30475e-05 6.18123)
0.00315594    (19.0213 -3.29624e-05 6.18123)
0.00317448    (19.0213 -3.28772e-05 6.18123)
0.00319303    (19.0213 -3.27911e-05 6.18122)
0.00321159    (19.0213 -3.27053e-05 6.18122)
0.00323016    (19.0213 -3.26191e-05 6.18122)
0.00324874    (19.0213 -3.25336e-05 6.18122)
0.00326734    (19.0213 -3.24493e-05 6.18121)
0.00328594    (19.0213 -3.23663e-05 6.18121)
0.00330457    (19.0213 -3.22834e-05 6.18121)
0.0033232     (19.0213 -3.22003e-05 6.18121)
0.00334185    (19.0213 -3.21171e-05 6.18121)
0.00336052    (19.0213 -3.20333e-05 6.1812)
0.00337921    (19.0213 -3.19503e-05 6.1812)
0.00339791    (19.0213 -3.18675e-05 6.1812)
0.00341662    (19.0213 -3.17845e-05 6.1812)
0.00343536    (19.0213 -3.17019e-05 6.1812)
0.0034541     (19.0213 -3.16188e-05 6.1812)
0.00347287    (19.0213 -3.15359e-05 6.18119)
0.00349164    (19.0213 -3.14524e-05 6.18119)
0.00351043    (19.0213 -3.13692e-05 6.18119)
0.00352924    (19.0213 -3.1287e-05 6.18119)
0.00354805    (19.0213 -3.12044e-05 6.18119)
0.00356688    (19.0213 -3.11224e-05 6.18119)
0.00358571    (19.0213 -3.10401e-05 6.18119)
0.00360456    (19.0213 -3.09584e-05 6.18119)
0.00362341    (19.0213 -3.08761e-05 6.18118)
0.00364227    (19.0213 -3.07947e-05 6.18118)
0.00366114    (19.0213 -3.07134e-05 6.18118)
0.00368001    (19.0213 -3.06325e-05 6.18118)
0.00369889    (19.0213 -3.05524e-05 6.18118)
0.00371777    (19.0213 -3.04726e-05 6.18118)
0.00373665    (19.0213 -3.03923e-05 6.18118)
0.00375554    (19.0213 -3.03125e-05 6.18118)
0.00377443    (19.0213 -3.02333e-05 6.18118)
0.00379333    (19.0213 -3.01562e-05 6.18118)
0.00381223    (19.0213 -3.00794e-05 6.18117)
0.00383113    (19.0213 -3.00025e-05 6.18117)
0.00385003    (19.0213 -2.99253e-05 6.18117)
0.00386894    (19.0213 -2.98484e-05 6.18117)
0.00388785    (19.0213 -2.97717e-05 6.18117)
0.00390675    (19.0213 -2.96953e-05 6.18117)
0.00392567    (19.0213 -2.96198e-05 6.18117)
0.00394458    (19.0213 -2.95457e-05 6.18117)
0.00396349    (19.0213 -2.94722e-05 6.18117)
0.00398241    (19.0213 -2.94001e-05 6.18117)
0.00400133    (19.0213 -2.93285e-05 6.18117)
0.00402025    (19.0213 -2.92576e-05 6.18117)
0.00403918    (19.0213 -2.91881e-05 6.18117)
0.00405811    (19.0213 -2.91198e-05 6.18117)
0.00407704    (19.0213 -2.90526e-05 6.18117)
0.00409597    (19.0213 -2.89854e-05 6.18117)
0.00411491    (19.0213 -2.89192e-05 6.18117)
0.00413386    (19.0213 -2.88538e-05 6.18116)
0.00415281    (19.0213 -2.87893e-05 6.18116)
0.00417176    (19.0213 -2.87258e-05 6.18116)
0.00419072    (19.0213 -2.86632e-05 6.18116)
0.00420969    (19.0213 -2.86019e-05 6.18116)
0.00422866    (19.0213 -2.85405e-05 6.18116)
0.00424764    (19.0213 -2.848e-05 6.18116)
0.00426663    (19.0213 -2.84207e-05 6.18116)
0.00428563    (19.0213 -2.83619e-05 6.18116)
0.00430463    (19.0213 -2.83043e-05 6.18116)
0.00432364    (19.0213 -2.82464e-05 6.18116)
0.00434267    (19.0213 -2.81895e-05 6.18116)
0.0043617     (19.0213 -2.81329e-05 6.18116)
0.00438074    (19.0213 -2.80761e-05 6.18116)
0.00439979    (19.0213 -2.80203e-05 6.18116)
0.00441885    (19.0213 -2.79654e-05 6.18116)
0.00443792    (19.0213 -2.79107e-05 6.18116)
0.00445701    (19.0213 -2.78567e-05 6.18116)
0.0044761     (19.0213 -2.78033e-05 6.18116)
0.00449521    (19.0213 -2.77512e-05 6.18116)
0.00451432    (19.0213 -2.77007e-05 6.18116)
0.00453345    (19.0213 -2.76516e-05 6.18116)
0.00455259    (19.0213 -2.7603e-05 6.18116)
0.00457173    (19.0213 -2.75539e-05 6.18116)
0.00459089    (19.0213 -2.75064e-05 6.18116)
0.00461006    (19.0213 -2.74598e-05 6.18116)
0.00462924    (19.0213 -2.74149e-05 6.18116)
0.00464842    (19.0213 -2.73707e-05 6.18116)
0.00466762    (19.0213 -2.73262e-05 6.18116)
0.00468682    (19.0213 -2.72833e-05 6.18116)
0.00470603    (19.0213 -2.72408e-05 6.18116)
0.00472525    (19.0213 -2.7199e-05 6.18116)
0.00474447    (19.0213 -2.71578e-05 6.18116)
0.00476371    (19.0213 -2.71176e-05 6.18116)
0.00478295    (19.0213 -2.70773e-05 6.18116)
0.00480219    (19.0213 -2.70376e-05 6.18116)
0.00482145    (19.0213 -2.69986e-05 6.18116)
0.00484071    (19.0213 -2.69604e-05 6.18116)
0.00485997    (19.0213 -2.69239e-05 6.18116)
0.00487924    (19.0213 -2.68876e-05 6.18116)
0.00489852    (19.0213 -2.68521e-05 6.18116)
0.00491781    (19.0213 -2.68181e-05 6.18116)
0.0049371     (19.0213 -2.67853e-05 6.18116)
0.0049564     (19.0213 -2.6753e-05 6.18116)
0.00497571    (19.0213 -2.6721e-05 6.18116)
0.00499502    (19.0213 -2.66898e-05 6.18116)
0.00501435    (19.0213 -2.66592e-05 6.18116)
0.00503368    (19.0213 -2.66296e-05 6.18116)
0.00505302    (19.0213 -2.66006e-05 6.18116)
0.00507237    (19.0213 -2.65723e-05 6.18116)
0.00509172    (19.0213 -2.65445e-05 6.18116)
0.00511109    (19.0213 -2.65168e-05 6.18116)
0.00513047    (19.0213 -2.64902e-05 6.18116)
0.00514987    (19.0213 -2.64642e-05 6.18116)
0.00516927    (19.0213 -2.64391e-05 6.18116)
0.00518869    (19.0213 -2.64153e-05 6.18117)
0.00520811    (19.0214 -2.63924e-05 6.18117)
0.00522755    (19.0214 -2.63701e-05 6.18117)
0.00524701    (19.0214 -2.63491e-05 6.18117)
0.00526648    (19.0214 -2.6329e-05 6.18117)
0.00528596    (19.0214 -2.63088e-05 6.18117)
0.00530546    (19.0214 -2.62894e-05 6.18117)
0.00532497    (19.0214 -2.62702e-05 6.18117)
0.0053445     (19.0214 -2.62516e-05 6.18117)
0.00536404    (19.0214 -2.62336e-05 6.18117)
0.0053836     (19.0214 -2.62166e-05 6.18117)
0.00540318    (19.0214 -2.62002e-05 6.18117)
0.00542278    (19.0214 -2.61842e-05 6.18117)
0.00544239    (19.0214 -2.6169e-05 6.18117)
0.00546201    (19.0214 -2.61543e-05 6.18117)
0.00548166    (19.0214 -2.61404e-05 6.18117)
0.00550133    (19.0214 -2.61268e-05 6.18117)
0.00552101    (19.0214 -2.61146e-05 6.18117)
0.00554071    (19.0214 -2.61028e-05 6.18117)
0.00556044    (19.0214 -2.60911e-05 6.18117)
0.00558018    (19.0214 -2.60812e-05 6.18117)
0.00559994    (19.0214 -2.60723e-05 6.18117)
0.00561973    (19.0214 -2.60643e-05 6.18117)
0.00563953    (19.0214 -2.60568e-05 6.18117)
0.00565935    (19.0214 -2.60493e-05 6.18117)
0.0056792     (19.0214 -2.60417e-05 6.18117)
0.00569907    (19.0214 -2.60357e-05 6.18117)
0.00571896    (19.0214 -2.60308e-05 6.18117)
0.00573887    (19.0214 -2.60262e-05 6.18117)
0.0057588     (19.0214 -2.60222e-05 6.18117)
0.00577876    (19.0214 -2.60195e-05 6.18117)
0.00579873    (19.0214 -2.60169e-05 6.18118)
0.00581873    (19.0214 -2.60146e-05 6.18118)
0.00583875    (19.0214 -2.60128e-05 6.18118)
0.00585879    (19.0214 -2.60121e-05 6.18118)
0.00587885    (19.0214 -2.60122e-05 6.18118)
0.00589893    (19.0214 -2.60128e-05 6.18118)
0.00591904    (19.0214 -2.60133e-05 6.18118)
0.00593916    (19.0214 -2.60141e-05 6.18118)
0.00595931    (19.0214 -2.60157e-05 6.18118)
0.00597948    (19.0214 -2.60184e-05 6.18118)
0.00599967    (19.0214 -2.60215e-05 6.18118)
0.00601989    (19.0214 -2.60256e-05 6.18118)
0.00604013    (19.0214 -2.60303e-05 6.18118)
0.00606039    (19.0214 -2.60349e-05 6.18118)
0.00608068    (19.0214 -2.60403e-05 6.18118)
0.00610099    (19.0214 -2.60467e-05 6.18118)
0.00612133    (19.0214 -2.60543e-05 6.18118)
0.00614169    (19.0214 -2.60617e-05 6.18118)
0.00616209    (19.0214 -2.60689e-05 6.18118)
0.00618251    (19.0214 -2.60759e-05 6.18118)
0.00620296    (19.0214 -2.60826e-05 6.18118)
0.00622344    (19.0214 -2.60897e-05 6.18118)
0.00624394    (19.0214 -2.60974e-05 6.18118)
0.00626448    (19.0214 -2.61062e-05 6.18118)
0.00628505    (19.0214 -2.61151e-05 6.18118)
0.00630566    (19.0214 -2.61246e-05 6.18118)
0.00632629    (19.0214 -2.61351e-05 6.18118)
0.00634696    (19.0214 -2.61466e-05 6.18118)
0.00636766    (19.0214 -2.61579e-05 6.18118)
0.0063884     (19.0214 -2.61697e-05 6.18118)
0.00640918    (19.0214 -2.61822e-05 6.18119)
0.00642998    (19.0214 -2.61951e-05 6.18119)
0.00645083    (19.0214 -2.62082e-05 6.18119)
0.00647172    (19.0214 -2.62223e-05 6.18119)
0.00649265    (19.0214 -2.62368e-05 6.18119)
0.00651361    (19.0214 -2.62511e-05 6.18119)
0.00653462    (19.0214 -2.62654e-05 6.18119)
0.00655567    (19.0214 -2.62806e-05 6.18119)
0.00657676    (19.0214 -2.62962e-05 6.18119)
0.00659789    (19.0214 -2.63126e-05 6.18119)
0.00661906    (19.0214 -2.63299e-05 6.18119)
0.00664028    (19.0214 -2.63474e-05 6.18119)
0.00666155    (19.0214 -2.63654e-05 6.18119)
0.00668285    (19.0214 -2.63835e-05 6.18119)
0.00670421    (19.0214 -2.64014e-05 6.18119)
0.0067256     (19.0214 -2.64194e-05 6.18119)
0.00674705    (19.0214 -2.64375e-05 6.18119)
0.00676853    (19.0214 -2.64559e-05 6.18119)
0.00679006    (19.0214 -2.64741e-05 6.18119)
0.00681164    (19.0214 -2.64934e-05 6.18119)
0.00683325    (19.0214 -2.65118e-05 6.18119)
0.00685491    (19.0214 -2.65294e-05 6.18119)
0.00687662    (19.0214 -2.65465e-05 6.18119)
0.00689836    (19.0214 -2.6564e-05 6.18119)
0.00692014    (19.0214 -2.65807e-05 6.18119)
0.00694196    (19.0214 -2.65971e-05 6.18119)
0.00696381    (19.0214 -2.6613e-05 6.18119)
0.0069857     (19.0214 -2.66282e-05 6.18119)
0.00700763    (19.0214 -2.66426e-05 6.18119)
0.00702959    (19.0214 -2.66579e-05 6.18119)
0.00705158    (19.0214 -2.66728e-05 6.18119)
0.00707361    (19.0214 -2.66881e-05 6.18119)
0.00709566    (19.0214 -2.6703e-05 6.18119)
0.00711775    (19.0214 -2.67179e-05 6.18119)
0.00713986    (19.0214 -2.6732e-05 6.18119)
0.007162      (19.0214 -2.67461e-05 6.18119)
0.00718417    (19.0214 -2.67593e-05 6.18119)
0.00720636    (19.0214 -2.67722e-05 6.18119)
0.00722857    (19.0214 -2.67853e-05 6.18119)
0.0072508     (19.0214 -2.6798e-05 6.18119)
0.00727305    (19.0214 -2.68102e-05 6.18119)
0.00729531    (19.0214 -2.6822e-05 6.18119)
0.00731759    (19.0214 -2.68337e-05 6.18119)
0.00733987    (19.0214 -2.68452e-05 6.18119)
0.00736216    (19.0214 -2.68566e-05 6.18119)
0.00738445    (19.0214 -2.68667e-05 6.18119)
0.00740674    (19.0214 -2.68756e-05 6.18119)
0.00742903    (19.0214 -2.68833e-05 6.18119)
0.0074513     (19.0214 -2.68905e-05 6.18119)
0.00747357    (19.0214 -2.6897e-05 6.18119)
0.00749582    (19.0214 -2.69027e-05 6.18119)
0.00751805    (19.0214 -2.69078e-05 6.18119)
0.00754027    (19.0214 -2.69122e-05 6.18119)
0.00756246    (19.0214 -2.69162e-05 6.18119)
0.00758462    (19.0214 -2.69188e-05 6.18119)
0.00760677    (19.0214 -2.69212e-05 6.18119)
0.00762888    (19.0214 -2.69231e-05 6.18119)
0.00765097    (19.0214 -2.69251e-05 6.18119)
0.00767303    (19.0214 -2.69265e-05 6.18119)
0.00769506    (19.0214 -2.69273e-05 6.18119)
0.00771706    (19.0214 -2.69287e-05 6.18119)
0.00773904    (19.0214 -2.69299e-05 6.18119)
0.00776099    (19.0214 -2.69309e-05 6.18119)
0.00778291    (19.0214 -2.69312e-05 6.18119)
0.00780481    (19.0214 -2.69313e-05 6.18119)
0.00782669    (19.0214 -2.69313e-05 6.18119)
0.00784854    (19.0214 -2.69312e-05 6.18119)
0.00787038    (19.0214 -2.69311e-05 6.18119)
0.0078922     (19.0214 -2.69306e-05 6.18119)
0.007914      (19.0214 -2.69299e-05 6.18119)
0.00793579    (19.0214 -2.69295e-05 6.18119)
0.00795758    (19.0214 -2.69296e-05 6.18119)
0.00797935    (19.0214 -2.69304e-05 6.18119)
0.00800112    (19.0214 -2.69308e-05 6.18119)
0.00802289    (19.0214 -2.69315e-05 6.18119)
0.00804466    (19.0214 -2.69319e-05 6.18119)
0.00806643    (19.0214 -2.69313e-05 6.18119)
0.0080882     (19.0214 -2.69296e-05 6.18119)
0.00810997    (19.0214 -2.69277e-05 6.18119)
0.00813175    (19.0214 -2.69254e-05 6.18119)
0.00815354    (19.0214 -2.69223e-05 6.18119)
0.00817533    (19.0214 -2.69194e-05 6.18119)
0.00819712    (19.0214 -2.69169e-05 6.18119)
0.00821893    (19.0214 -2.69143e-05 6.18119)
0.00824074    (19.0214 -2.69123e-05 6.18119)
0.00826256    (19.0214 -2.69102e-05 6.18119)
0.00828438    (19.0214 -2.69077e-05 6.18119)
0.00830622    (19.0214 -2.69055e-05 6.18119)
0.00832806    (19.0214 -2.69031e-05 6.18119)
0.00834991    (19.0214 -2.6901e-05 6.18119)
0.00837176    (19.0214 -2.68988e-05 6.18119)
0.00839363    (19.0214 -2.68968e-05 6.18119)
0.0084155     (19.0214 -2.68947e-05 6.18119)
0.00843737    (19.0214 -2.68928e-05 6.18119)
0.00845926    (19.0214 -2.68899e-05 6.18119)
0.00848115    (19.0214 -2.68864e-05 6.18119)
0.00850305    (19.0214 -2.68829e-05 6.18119)
0.00852496    (19.0214 -2.68797e-05 6.18119)
0.00854687    (19.0214 -2.68764e-05 6.18119)
0.0085688     (19.0214 -2.68727e-05 6.18119)
0.00859073    (19.0214 -2.68693e-05 6.18119)
0.00861267    (19.0214 -2.68658e-05 6.18119)
0.00863463    (19.0214 -2.68615e-05 6.18119)
0.00865659    (19.0214 -2.6856e-05 6.18119)
0.00867857    (19.0214 -2.68503e-05 6.18119)
0.00870055    (19.0214 -2.68453e-05 6.18119)
0.00872255    (19.0214 -2.68402e-05 6.18119)
0.00874455    (19.0214 -2.68348e-05 6.18119)
0.00876657    (19.0214 -2.68288e-05 6.18118)
0.0087886     (19.0214 -2.68216e-05 6.18118)
0.00881063    (19.0214 -2.68136e-05 6.18118)
0.00883268    (19.0214 -2.68052e-05 6.18118)
0.00885473    (19.0214 -2.67969e-05 6.18118)
0.00887679    (19.0214 -2.67884e-05 6.18118)
0.00889886    (19.0214 -2.67791e-05 6.18118)
0.00892094    (19.0214 -2.67692e-05 6.18118)
0.00894302    (19.0214 -2.6758e-05 6.18118)
0.00896511    (19.0214 -2.67469e-05 6.18118)
0.0089872     (19.0214 -2.67353e-05 6.18118)
0.00900929    (19.0214 -2.67231e-05 6.18118)
0.00903138    (19.0214 -2.67104e-05 6.18118)
0.00905348    (19.0214 -2.66975e-05 6.18118)
0.00907557    (19.0214 -2.66836e-05 6.18118)
0.00909767    (19.0214 -2.66692e-05 6.18118)
0.00911976    (19.0214 -2.66548e-05 6.18118)
0.00914186    (19.0214 -2.66416e-05 6.18118)
0.00916395    (19.0214 -2.66281e-05 6.18118)
0.00918603    (19.0214 -2.66136e-05 6.18118)
0.00920812    (19.0214 -2.65976e-05 6.18118)
0.0092302     (19.0214 -2.65825e-05 6.18118)
0.00925227    (19.0214 -2.65659e-05 6.18118)
0.00927434    (19.0214 -2.65488e-05 6.18118)
0.00929641    (19.0214 -2.65322e-05 6.18118)
0.00931847    (19.0214 -2.65149e-05 6.18118)
0.00934053    (19.0214 -2.64985e-05 6.18118)
0.00936258    (19.0214 -2.64823e-05 6.18118)
0.00938463    (19.0214 -2.64654e-05 6.18118)
0.00940667    (19.0214 -2.64482e-05 6.18118)
0.00942871    (19.0214 -2.64316e-05 6.18117)
0.00945075    (19.0214 -2.64148e-05 6.18117)
0.00947279    (19.0214 -2.6398e-05 6.18117)
0.00949483    (19.0214 -2.63807e-05 6.18117)
0.00951687    (19.0214 -2.63628e-05 6.18117)
0.00953892    (19.0214 -2.63452e-05 6.18117)
0.00956097    (19.0214 -2.63269e-05 6.18117)
0.00958303    (19.0214 -2.63087e-05 6.18117)
0.00960511    (19.0214 -2.62918e-05 6.18117)
0.00962719    (19.0214 -2.62743e-05 6.18117)
0.00964928    (19.0214 -2.62556e-05 6.18117)
0.00967139    (19.0214 -2.62364e-05 6.18117)
0.00969352    (19.0214 -2.62167e-05 6.18117)
0.00971566    (19.0214 -2.61962e-05 6.18117)
0.00973782    (19.0214 -2.61754e-05 6.18117)
0.00976       (19.0214 -2.61543e-05 6.18117)
0.00978221    (19.0214 -2.61337e-05 6.18117)
0.00980444    (19.0214 -2.6114e-05 6.18117)
0.00982668    (19.0214 -2.60947e-05 6.18117)
0.00984896    (19.0214 -2.6075e-05 6.18117)
0.00987126    (19.0214 -2.60558e-05 6.18117)
0.00989358    (19.0214 -2.60364e-05 6.18117)
0.00991593    (19.0214 -2.60162e-05 6.18117)
0.0099383     (19.0214 -2.59961e-05 6.18117)
0.0099607     (19.0214 -2.59753e-05 6.18117)
0.00998312    (19.0214 -2.59555e-05 6.18116)
0.0100056     (19.0214 -2.59352e-05 6.18116)
0.010028      (19.0214 -2.59157e-05 6.18116)
0.0100505     (19.0214 -2.58974e-05 6.18116)
0.0100731     (19.0214 -2.58787e-05 6.18116)
0.0100956     (19.0214 -2.58593e-05 6.18116)
0.0101182     (19.0214 -2.58391e-05 6.18116)
0.0101407     (19.0214 -2.58183e-05 6.18116)
0.0101633     (19.0214 -2.57977e-05 6.18116)
0.0101859     (19.0214 -2.57751e-05 6.18116)
0.0102086     (19.0214 -2.57524e-05 6.18116)
0.0102312     (19.0214 -2.57304e-05 6.18116)
0.0102539     (19.0214 -2.57074e-05 6.18116)
0.0102766     (19.0214 -2.56837e-05 6.18116)
0.0102993     (19.0214 -2.56618e-05 6.18116)
0.010322      (19.0214 -2.56403e-05 6.18116)
0.0103447     (19.0214 -2.56177e-05 6.18116)
0.0103674     (19.0214 -2.55936e-05 6.18116)
0.0103902     (19.0214 -2.55681e-05 6.18116)
0.0104129     (19.0214 -2.55435e-05 6.18116)
0.0104357     (19.0214 -2.55189e-05 6.18116)
0.0104585     (19.0214 -2.54958e-05 6.18116)
0.0104813     (19.0214 -2.54719e-05 6.18116)
0.0105041     (19.0214 -2.5447e-05 6.18115)
0.010527      (19.0214 -2.54221e-05 6.18115)
0.0105498     (19.0214 -2.53968e-05 6.18115)
0.0105727     (19.0214 -2.53738e-05 6.18115)
0.0105956     (19.0214 -2.53508e-05 6.18115)
0.0106184     (19.0214 -2.53276e-05 6.18115)
0.0106414     (19.0214 -2.53031e-05 6.18115)
0.0106643     (19.0214 -2.5278e-05 6.18115)
0.0106872     (19.0214 -2.52523e-05 6.18115)
0.0107102     (19.0214 -2.52266e-05 6.18115)
0.0107332     (19.0214 -2.52027e-05 6.18115)
0.0107562     (19.0214 -2.51782e-05 6.18115)
0.0107792     (19.0214 -2.51518e-05 6.18115)
0.0108022     (19.0214 -2.51261e-05 6.18115)
0.0108253     (19.0214 -2.50992e-05 6.18115)
0.0108484     (19.0214 -2.50709e-05 6.18115)
0.0108715     (19.0214 -2.50424e-05 6.18115)
0.0108946     (19.0214 -2.50146e-05 6.18115)
0.0109177     (19.0214 -2.4986e-05 6.18115)
0.0109408     (19.0214 -2.49573e-05 6.18115)
0.010964      (19.0214 -2.49286e-05 6.18115)
0.0109872     (19.0214 -2.49013e-05 6.18114)
0.0110104     (19.0214 -2.4875e-05 6.18114)
0.0110336     (19.0214 -2.48479e-05 6.18114)
0.0110568     (19.0214 -2.48203e-05 6.18114)
0.0110801     (19.0214 -2.47932e-05 6.18114)
0.0111033     (19.0214 -2.47673e-05 6.18114)
0.0111266     (19.0214 -2.47424e-05 6.18114)
0.0111499     (19.0214 -2.47181e-05 6.18114)
0.0111732     (19.0214 -2.46936e-05 6.18114)
0.0111965     (19.0214 -2.46694e-05 6.18114)
0.0112199     (19.0214 -2.46457e-05 6.18114)
0.0112432     (19.0214 -2.46228e-05 6.18114)
0.0112666     (19.0214 -2.45987e-05 6.18114)
0.0112899     (19.0214 -2.45736e-05 6.18114)
0.0113133     (19.0214 -2.45505e-05 6.18114)
0.0113367     (19.0214 -2.45281e-05 6.18114)
0.0113601     (19.0214 -2.45066e-05 6.18114)
0.0113835     (19.0214 -2.44841e-05 6.18114)
0.0114069     (19.0214 -2.44605e-05 6.18114)
0.0114303     (19.0214 -2.44375e-05 6.18114)
0.0114538     (19.0213 -2.44161e-05 6.18113)
0.0114772     (19.0213 -2.4396e-05 6.18113)
0.0115007     (19.0213 -2.43769e-05 6.18113)
0.0115241     (19.0213 -2.43564e-05 6.18113)
0.0115476     (19.0213 -2.43374e-05 6.18113)
0.0115711     (19.0213 -2.4319e-05 6.18113)
0.0115945     (19.0213 -2.43023e-05 6.18113)
0.011618      (19.0213 -2.42866e-05 6.18113)
0.0116415     (19.0213 -2.42693e-05 6.18113)
0.011665      (19.0213 -2.42513e-05 6.18113)
0.0116885     (19.0213 -2.42338e-05 6.18113)
0.011712      (19.0213 -2.42175e-05 6.18113)
0.0117355     (19.0213 -2.4201e-05 6.18113)
0.011759      (19.0213 -2.41834e-05 6.18113)
0.0117825     (19.0213 -2.41657e-05 6.18113)
0.011806      (19.0213 -2.41494e-05 6.18113)
0.0118296     (19.0213 -2.41318e-05 6.18113)
0.0118531     (19.0213 -2.41144e-05 6.18113)
0.0118766     (19.0213 -2.40998e-05 6.18113)
0.0119001     (19.0213 -2.40845e-05 6.18113)
0.0119236     (19.0213 -2.40691e-05 6.18113)
0.0119471     (19.0213 -2.40518e-05 6.18113)
0.0119706     (19.0213 -2.40325e-05 6.18112)
0.0119941     (19.0213 -2.40123e-05 6.18112)
0.0120177     (19.0213 -2.39934e-05 6.18112)
0.0120412     (19.0213 -2.39748e-05 6.18112)
0.0120647     (19.0213 -2.39539e-05 6.18112)
0.0120882     (19.0213 -2.3936e-05 6.18112)
0.0121117     (19.0213 -2.39218e-05 6.18112)
0.0121352     (19.0213 -2.3908e-05 6.18112)
0.0121588     (19.0213 -2.38949e-05 6.18112)
0.0121823     (19.0213 -2.38801e-05 6.18112)
0.0122058     (19.0213 -2.38658e-05 6.18112)
0.0122293     (19.0213 -2.38539e-05 6.18112)
0.0122528     (19.0213 -2.38408e-05 6.18112)
0.0122764     (19.0213 -2.38268e-05 6.18112)
0.0122999     (19.0213 -2.38123e-05 6.18112)
0.0123234     (19.0213 -2.37981e-05 6.18112)
0.0123469     (19.0213 -2.3785e-05 6.18112)
0.0123705     (19.0213 -2.37713e-05 6.18112)